BD polyelectrolyte simulations - created on Mon Nov 27 16:34:27 EST 2023


18000 atoms
1 atom types
17700 bonds
1 bond types

0 300.000 xlo xhi
0 300.000 ylo yhi
0 300.000 zlo zhi

Masses

1 1

Atoms

1 1 1 -1.0 136.000000 292.000000 228.000000
2 1 1 -1.0 135.000610 291.965088 227.000153
3 1 1 -1.0 134.861435 290.974823 227.530075
4 1 1 -1.0 134.062805 290.373016 226.710922
5 1 1 -1.0 133.078003 290.199371 226.641159
6 1 1 -1.0 132.229950 289.669464 227.348267
7 1 1 -1.0 133.104568 289.184662 227.607086
8 1 1 -1.0 132.713837 290.105164 226.708298
9 1 1 -1.0 133.120575 291.018707 226.673401
10 1 1 -1.0 132.651108 290.135773 225.774612
11 1 1 -1.0 132.529236 289.143219 224.875824
12 1 1 -1.0 133.211227 288.411865 225.875671
13 1 1 -1.0 133.954376 287.742737 226.875519
14 1 1 -1.0 132.954376 287.742737 227.477341
15 1 1 -1.0 131.984085 287.500824 227.752975
16 1 1 -1.0 132.276459 288.457123 228.472321
17 1 1 -1.0 131.647141 287.679962 227.511063
18 1 1 -1.0 130.652618 287.784485 226.523376
19 1 1 -1.0 129.843597 288.372253 227.038422
20 1 1 -1.0 130.281967 287.473450 226.600052
21 1 1 -1.0 130.574341 288.429749 225.605530
22 1 1 -1.0 130.265320 289.380798 225.761963
23 1 1 -1.0 131.198898 289.739166 225.571152
24 1 1 -1.0 130.242599 289.446808 225.011963
25 1 1 -1.0 131.117218 289.931610 225.990112
26 1 1 -1.0 130.617218 289.065582 225.062927
27 1 1 -1.0 131.232880 289.853607 224.855011
28 1 1 -1.0 130.842148 290.774109 225.028656
29 1 1 -1.0 130.065002 291.403442 224.108154
30 1 1 -1.0 129.333649 292.085449 223.685532
31 1 1 -1.0 130.040756 291.378357 223.310928
32 1 1 -1.0 129.682388 292.311951 222.591583
33 1 1 -1.0 129.682388 293.311951 223.390213
34 1 1 -1.0 130.255966 292.492798 222.581192
35 1 1 -1.0 129.261444 292.597321 222.737625
36 1 1 -1.0 129.684067 293.503632 222.979553
37 1 1 -1.0 130.654358 293.745544 222.122391
38 1 1 -1.0 130.741516 292.749359 222.414764
39 1 1 -1.0 131.681213 293.091370 223.341949
40 1 1 -1.0 131.388840 294.047668 223.394287
41 1 1 -1.0 131.562485 293.062866 223.152359
42 1 1 -1.0 130.611435 292.753845 224.137161
43 1 1 -1.0 131.420456 293.341644 223.382446
44 1 1 -1.0 132.268509 292.811737 223.434784
45 1 1 -1.0 132.077698 293.793365 224.400711
46 1 1 -1.0 131.608231 292.910431 225.229752
47 1 1 -1.0 132.108231 292.044403 226.086914
48 1 1 -1.0 131.951797 293.032104 226.461517
49 1 1 -1.0 131.829926 292.039551 226.600693
50 1 1 -1.0 131.471558 291.105957 226.178070
51 1 1 -1.0 131.471558 290.105957 225.458725
52 1 1 -1.0 132.100876 289.328796 226.246735
53 1 1 -1.0 131.710144 290.249298 225.552078
54 1 1 -1.0 132.283722 289.430145 224.564392
55 1 1 -1.0 131.309357 289.205200 225.341537
56 1 1 -1.0 130.331207 289.413116 224.466919
57 1 1 -1.0 130.072388 288.447205 224.571442
58 1 1 -1.0 130.414413 289.386902 223.637863
59 1 1 -1.0 129.419891 289.491425 224.253525
60 1 1 -1.0 130.248932 288.932220 223.257324
61 2 1 1.0 192.000000 12.000000 68.000000
62 2 1 1.0 191.000610 11.965098 67.000153
63 2 1 1.0 190.861435 10.974830 67.530075
64 2 1 1.0 190.062805 10.373013 66.710922
65 2 1 1.0 189.078003 10.199364 66.641167
66 2 1 1.0 188.229950 9.669443 67.348274
67 2 1 1.0 189.104568 9.184634 67.607094
68 2 1 1.0 188.713837 10.105138 66.708298
69 2 1 1.0 189.120575 11.018683 66.673393
70 2 1 1.0 188.651108 10.135736 65.774597
71 2 1 1.0 188.529236 9.143189 64.875801
72 2 1 1.0 189.211227 8.411837 65.875648
73 2 1 1.0 189.954376 7.742707 66.875496
74 2 1 1.0 188.954376 7.742705 67.477310
75 2 1 1.0 187.984085 7.500782 67.752945
76 2 1 1.0 188.276459 8.457087 68.472282
77 2 1 1.0 187.647141 7.679940 67.511017
78 2 1 1.0 186.652618 7.784467 66.523331
79 2 1 1.0 185.843597 8.372251 67.038368
80 2 1 1.0 186.281967 7.473457 66.599998
81 2 1 1.0 186.574341 8.429762 65.605476
82 2 1 1.0 186.265320 9.380817 65.761909
83 2 1 1.0 187.198898 9.739185 65.571098
84 2 1 1.0 186.242599 9.446812 65.011902
85 2 1 1.0 187.117218 9.931622 65.990051
86 2 1 1.0 186.617218 9.065596 65.062866
87 2 1 1.0 187.232880 9.853606 64.854950
88 2 1 1.0 186.842148 10.774110 65.028603
89 2 1 1.0 186.065002 11.403429 64.108101
90 2 1 1.0 185.333649 12.085426 63.685482
91 2 1 1.0 186.040756 11.378321 63.310875
92 2 1 1.0 185.682388 12.311900 62.591537
93 2 1 1.0 185.682388 13.311900 63.390175
94 2 1 1.0 186.255966 12.492748 62.581158
95 2 1 1.0 185.261444 12.597275 62.737595
96 2 1 1.0 185.684067 13.503583 62.979519
97 2 1 1.0 186.654358 13.745505 62.122353
98 2 1 1.0 186.741516 12.749310 62.414722
99 2 1 1.0 187.681213 13.091331 63.341908
100 2 1 1.0 187.388840 14.047636 63.394245
101 2 1 1.0 187.562485 13.062828 63.152325
102 2 1 1.0 186.611435 12.753810 64.137131
103 2 1 1.0 187.420456 13.341596 63.382423
104 2 1 1.0 188.268509 12.811677 63.434761
105 2 1 1.0 188.077698 13.793303 64.400688
106 2 1 1.0 187.608231 12.910356 65.229729
107 2 1 1.0 188.108231 12.044331 66.086899
108 2 1 1.0 187.951797 13.032019 66.461502
109 2 1 1.0 187.829926 12.039473 66.600677
110 2 1 1.0 187.471558 11.105891 66.178055
111 2 1 1.0 187.471558 10.105891 65.458717
112 2 1 1.0 188.100876 9.328746 66.246727
113 2 1 1.0 187.710144 10.249249 65.552071
114 2 1 1.0 188.283722 9.430098 64.564384
115 2 1 1.0 187.309357 9.205145 65.341530
116 2 1 1.0 186.331207 9.413055 64.466911
117 2 1 1.0 186.072388 8.447129 64.571442
118 2 1 1.0 186.414413 9.386822 63.637863
119 2 1 1.0 185.419891 9.491348 64.253525
120 2 1 1.0 186.248932 8.932156 63.257332
121 3 1 -1.0 192.000000 12.000000 68.000000
122 3 1 -1.0 191.000610 11.965098 67.000153
123 3 1 -1.0 190.861435 10.974830 67.530075
124 3 1 -1.0 190.062805 10.373013 66.710922
125 3 1 -1.0 189.078003 10.199364 66.641167
126 3 1 -1.0 188.229950 9.669443 67.348274
127 3 1 -1.0 189.104568 9.184634 67.607094
128 3 1 -1.0 188.713837 10.105138 66.708298
129 3 1 -1.0 189.120575 11.018683 66.673393
130 3 1 -1.0 188.651108 10.135736 65.774597
131 3 1 -1.0 188.529236 9.143189 64.875801
132 3 1 -1.0 189.211227 8.411837 65.875648
133 3 1 -1.0 189.954376 7.742707 66.875496
134 3 1 -1.0 188.954376 7.742705 67.477310
135 3 1 -1.0 187.984085 7.500782 67.752945
136 3 1 -1.0 188.276459 8.457087 68.472282
137 3 1 -1.0 187.647141 7.679940 67.511017
138 3 1 -1.0 186.652618 7.784467 66.523331
139 3 1 -1.0 185.843597 8.372251 67.038368
140 3 1 -1.0 186.281967 7.473457 66.599998
141 3 1 -1.0 186.574341 8.429762 65.605476
142 3 1 -1.0 186.265320 9.380817 65.761909
143 3 1 -1.0 187.198898 9.739185 65.571098
144 3 1 -1.0 186.242599 9.446812 65.011902
145 3 1 -1.0 187.117218 9.931622 65.990051
146 3 1 -1.0 186.617218 9.065596 65.062866
147 3 1 -1.0 187.232880 9.853606 64.854950
148 3 1 -1.0 186.842148 10.774110 65.028603
149 3 1 -1.0 186.065002 11.403429 64.108101
150 3 1 -1.0 185.333649 12.085426 63.685482
151 3 1 -1.0 186.040756 11.378321 63.310875
152 3 1 -1.0 185.682388 12.311900 62.591537
153 3 1 -1.0 185.682388 13.311900 63.390175
154 3 1 -1.0 186.255966 12.492748 62.581158
155 3 1 -1.0 185.261444 12.597275 62.737595
156 3 1 -1.0 185.684067 13.503583 62.979519
157 3 1 -1.0 186.654358 13.745505 62.122353
158 3 1 -1.0 186.741516 12.749310 62.414722
159 3 1 -1.0 187.681213 13.091331 63.341908
160 3 1 -1.0 187.388840 14.047636 63.394245
161 3 1 -1.0 187.562485 13.062828 63.152325
162 3 1 -1.0 186.611435 12.753810 64.137131
163 3 1 -1.0 187.420456 13.341596 63.382423
164 3 1 -1.0 188.268509 12.811677 63.434761
165 3 1 -1.0 188.077698 13.793303 64.400688
166 3 1 -1.0 187.608231 12.910356 65.229729
167 3 1 -1.0 188.108231 12.044331 66.086899
168 3 1 -1.0 187.951797 13.032019 66.461502
169 3 1 -1.0 187.829926 12.039473 66.600677
170 3 1 -1.0 187.471558 11.105891 66.178055
171 3 1 -1.0 187.471558 10.105891 65.458717
172 3 1 -1.0 188.100876 9.328746 66.246727
173 3 1 -1.0 187.710144 10.249249 65.552071
174 3 1 -1.0 188.283722 9.430098 64.564384
175 3 1 -1.0 187.309357 9.205145 65.341530
176 3 1 -1.0 186.331207 9.413055 64.466911
177 3 1 -1.0 186.072388 8.447129 64.571442
178 3 1 -1.0 186.414413 9.386822 63.637863
179 3 1 -1.0 185.419891 9.491348 64.253525
180 3 1 -1.0 186.248932 8.932156 63.257332
181 4 1 1.0 192.000000 12.000000 68.000000
182 4 1 1.0 191.000610 11.965098 67.000153
183 4 1 1.0 190.861435 10.974830 67.530075
184 4 1 1.0 190.062805 10.373013 66.710922
185 4 1 1.0 189.078003 10.199364 66.641167
186 4 1 1.0 188.229950 9.669443 67.348274
187 4 1 1.0 189.104568 9.184634 67.607094
188 4 1 1.0 188.713837 10.105138 66.708298
189 4 1 1.0 189.120575 11.018683 66.673393
190 4 1 1.0 188.651108 10.135736 65.774597
191 4 1 1.0 188.529236 9.143189 64.875801
192 4 1 1.0 189.211227 8.411837 65.875648
193 4 1 1.0 189.954376 7.742707 66.875496
194 4 1 1.0 188.954376 7.742705 67.477310
195 4 1 1.0 187.984085 7.500782 67.752945
196 4 1 1.0 188.276459 8.457087 68.472282
197 4 1 1.0 187.647141 7.679940 67.511017
198 4 1 1.0 186.652618 7.784467 66.523331
199 4 1 1.0 185.843597 8.372251 67.038368
200 4 1 1.0 186.281967 7.473457 66.599998
201 4 1 1.0 186.574341 8.429762 65.605476
202 4 1 1.0 186.265320 9.380817 65.761909
203 4 1 1.0 187.198898 9.739185 65.571098
204 4 1 1.0 186.242599 9.446812 65.011902
205 4 1 1.0 187.117218 9.931622 65.990051
206 4 1 1.0 186.617218 9.065596 65.062866
207 4 1 1.0 187.232880 9.853606 64.854950
208 4 1 1.0 186.842148 10.774110 65.028603
209 4 1 1.0 186.065002 11.403429 64.108101
210 4 1 1.0 185.333649 12.085426 63.685482
211 4 1 1.0 186.040756 11.378321 63.310875
212 4 1 1.0 185.682388 12.311900 62.591537
213 4 1 1.0 185.682388 13.311900 63.390175
214 4 1 1.0 186.255966 12.492748 62.581158
215 4 1 1.0 185.261444 12.597275 62.737595
216 4 1 1.0 185.684067 13.503583 62.979519
217 4 1 1.0 186.654358 13.745505 62.122353
218 4 1 1.0 186.741516 12.749310 62.414722
219 4 1 1.0 187.681213 13.091331 63.341908
220 4 1 1.0 187.388840 14.047636 63.394245
221 4 1 1.0 187.562485 13.062828 63.152325
222 4 1 1.0 186.611435 12.753810 64.137131
223 4 1 1.0 187.420456 13.341596 63.382423
224 4 1 1.0 188.268509 12.811677 63.434761
225 4 1 1.0 188.077698 13.793303 64.400688
226 4 1 1.0 187.608231 12.910356 65.229729
227 4 1 1.0 188.108231 12.044331 66.086899
228 4 1 1.0 187.951797 13.032019 66.461502
229 4 1 1.0 187.829926 12.039473 66.600677
230 4 1 1.0 187.471558 11.105891 66.178055
231 4 1 1.0 187.471558 10.105891 65.458717
232 4 1 1.0 188.100876 9.328746 66.246727
233 4 1 1.0 187.710144 10.249249 65.552071
234 4 1 1.0 188.283722 9.430098 64.564384
235 4 1 1.0 187.309357 9.205145 65.341530
236 4 1 1.0 186.331207 9.413055 64.466911
237 4 1 1.0 186.072388 8.447129 64.571442
238 4 1 1.0 186.414413 9.386822 63.637863
239 4 1 1.0 185.419891 9.491348 64.253525
240 4 1 1.0 186.248932 8.932156 63.257332
241 5 1 -1.0 192.000000 12.000000 68.000000
242 5 1 -1.0 191.000610 11.965098 67.000153
243 5 1 -1.0 190.861435 10.974830 67.530075
244 5 1 -1.0 190.062805 10.373013 66.710922
245 5 1 -1.0 189.078003 10.199364 66.641167
246 5 1 -1.0 188.229950 9.669443 67.348274
247 5 1 -1.0 189.104568 9.184634 67.607094
248 5 1 -1.0 188.713837 10.105138 66.708298
249 5 1 -1.0 189.120575 11.018683 66.673393
250 5 1 -1.0 188.651108 10.135736 65.774597
251 5 1 -1.0 188.529236 9.143189 64.875801
252 5 1 -1.0 189.211227 8.411837 65.875648
253 5 1 -1.0 189.954376 7.742707 66.875496
254 5 1 -1.0 188.954376 7.742705 67.477310
255 5 1 -1.0 187.984085 7.500782 67.752945
256 5 1 -1.0 188.276459 8.457087 68.472282
257 5 1 -1.0 187.647141 7.679940 67.511017
258 5 1 -1.0 186.652618 7.784467 66.523331
259 5 1 -1.0 185.843597 8.372251 67.038368
260 5 1 -1.0 186.281967 7.473457 66.599998
261 5 1 -1.0 186.574341 8.429762 65.605476
262 5 1 -1.0 186.265320 9.380817 65.761909
263 5 1 -1.0 187.198898 9.739185 65.571098
264 5 1 -1.0 186.242599 9.446812 65.011902
265 5 1 -1.0 187.117218 9.931622 65.990051
266 5 1 -1.0 186.617218 9.065596 65.062866
267 5 1 -1.0 187.232880 9.853606 64.854950
268 5 1 -1.0 186.842148 10.774110 65.028603
269 5 1 -1.0 186.065002 11.403429 64.108101
270 5 1 -1.0 185.333649 12.085426 63.685482
271 5 1 -1.0 186.040756 11.378321 63.310875
272 5 1 -1.0 185.682388 12.311900 62.591537
273 5 1 -1.0 185.682388 13.311900 63.390175
274 5 1 -1.0 186.255966 12.492748 62.581158
275 5 1 -1.0 185.261444 12.597275 62.737595
276 5 1 -1.0 185.684067 13.503583 62.979519
277 5 1 -1.0 186.654358 13.745505 62.122353
278 5 1 -1.0 186.741516 12.749310 62.414722
279 5 1 -1.0 187.681213 13.091331 63.341908
280 5 1 -1.0 187.388840 14.047636 63.394245
281 5 1 -1.0 187.562485 13.062828 63.152325
282 5 1 -1.0 186.611435 12.753810 64.137131
283 5 1 -1.0 187.420456 13.341596 63.382423
284 5 1 -1.0 188.268509 12.811677 63.434761
285 5 1 -1.0 188.077698 13.793303 64.400688
286 5 1 -1.0 187.608231 12.910356 65.229729
287 5 1 -1.0 188.108231 12.044331 66.086899
288 5 1 -1.0 187.951797 13.032019 66.461502
289 5 1 -1.0 187.829926 12.039473 66.600677
290 5 1 -1.0 187.471558 11.105891 66.178055
291 5 1 -1.0 187.471558 10.105891 65.458717
292 5 1 -1.0 188.100876 9.328746 66.246727
293 5 1 -1.0 187.710144 10.249249 65.552071
294 5 1 -1.0 188.283722 9.430098 64.564384
295 5 1 -1.0 187.309357 9.205145 65.341530
296 5 1 -1.0 186.331207 9.413055 64.466911
297 5 1 -1.0 186.072388 8.447129 64.571442
298 5 1 -1.0 186.414413 9.386822 63.637863
299 5 1 -1.0 185.419891 9.491348 64.253525
300 5 1 -1.0 186.248932 8.932156 63.257332
301 6 1 1.0 192.000000 12.000000 68.000000
302 6 1 1.0 191.000610 11.965098 67.000153
303 6 1 1.0 190.861435 10.974830 67.530075
304 6 1 1.0 190.062805 10.373013 66.710922
305 6 1 1.0 189.078003 10.199364 66.641167
306 6 1 1.0 188.229950 9.669443 67.348274
307 6 1 1.0 189.104568 9.184634 67.607094
308 6 1 1.0 188.713837 10.105138 66.708298
309 6 1 1.0 189.120575 11.018683 66.673393
310 6 1 1.0 188.651108 10.135736 65.774597
311 6 1 1.0 188.529236 9.143189 64.875801
312 6 1 1.0 189.211227 8.411837 65.875648
313 6 1 1.0 189.954376 7.742707 66.875496
314 6 1 1.0 188.954376 7.742705 67.477310
315 6 1 1.0 187.984085 7.500782 67.752945
316 6 1 1.0 188.276459 8.457087 68.472282
317 6 1 1.0 187.647141 7.679940 67.511017
318 6 1 1.0 186.652618 7.784467 66.523331
319 6 1 1.0 185.843597 8.372251 67.038368
320 6 1 1.0 186.281967 7.473457 66.599998
321 6 1 1.0 186.574341 8.429762 65.605476
322 6 1 1.0 186.265320 9.380817 65.761909
323 6 1 1.0 187.198898 9.739185 65.571098
324 6 1 1.0 186.242599 9.446812 65.011902
325 6 1 1.0 187.117218 9.931622 65.990051
326 6 1 1.0 186.617218 9.065596 65.062866
327 6 1 1.0 187.232880 9.853606 64.854950
328 6 1 1.0 186.842148 10.774110 65.028603
329 6 1 1.0 186.065002 11.403429 64.108101
330 6 1 1.0 185.333649 12.085426 63.685482
331 6 1 1.0 186.040756 11.378321 63.310875
332 6 1 1.0 185.682388 12.311900 62.591537
333 6 1 1.0 185.682388 13.311900 63.390175
334 6 1 1.0 186.255966 12.492748 62.581158
335 6 1 1.0 185.261444 12.597275 62.737595
336 6 1 1.0 185.684067 13.503583 62.979519
337 6 1 1.0 186.654358 13.745505 62.122353
338 6 1 1.0 186.741516 12.749310 62.414722
339 6 1 1.0 187.681213 13.091331 63.341908
340 6 1 1.0 187.388840 14.047636 63.394245
341 6 1 1.0 187.562485 13.062828 63.152325
342 6 1 1.0 186.611435 12.753810 64.137131
343 6 1 1.0 187.420456 13.341596 63.382423
344 6 1 1.0 188.268509 12.811677 63.434761
345 6 1 1.0 188.077698 13.793303 64.400688
346 6 1 1.0 187.608231 12.910356 65.229729
347 6 1 1.0 188.108231 12.044331 66.086899
348 6 1 1.0 187.951797 13.032019 66.461502
349 6 1 1.0 187.829926 12.039473 66.600677
350 6 1 1.0 187.471558 11.105891 66.178055
351 6 1 1.0 187.471558 10.105891 65.458717
352 6 1 1.0 188.100876 9.328746 66.246727
353 6 1 1.0 187.710144 10.249249 65.552071
354 6 1 1.0 188.283722 9.430098 64.564384
355 6 1 1.0 187.309357 9.205145 65.341530
356 6 1 1.0 186.331207 9.413055 64.466911
357 6 1 1.0 186.072388 8.447129 64.571442
358 6 1 1.0 186.414413 9.386822 63.637863
359 6 1 1.0 185.419891 9.491348 64.253525
360 6 1 1.0 186.248932 8.932156 63.257332
361 7 1 -1.0 192.000000 12.000000 68.000000
362 7 1 -1.0 191.000610 11.965098 67.000153
363 7 1 -1.0 190.861435 10.974830 67.530075
364 7 1 -1.0 190.062805 10.373013 66.710922
365 7 1 -1.0 189.078003 10.199364 66.641167
366 7 1 -1.0 188.229950 9.669443 67.348274
367 7 1 -1.0 189.104568 9.184634 67.607094
368 7 1 -1.0 188.713837 10.105138 66.708298
369 7 1 -1.0 189.120575 11.018683 66.673393
370 7 1 -1.0 188.651108 10.135736 65.774597
371 7 1 -1.0 188.529236 9.143189 64.875801
372 7 1 -1.0 189.211227 8.411837 65.875648
373 7 1 -1.0 189.954376 7.742707 66.875496
374 7 1 -1.0 188.954376 7.742705 67.477310
375 7 1 -1.0 187.984085 7.500782 67.752945
376 7 1 -1.0 188.276459 8.457087 68.472282
377 7 1 -1.0 187.647141 7.679940 67.511017
378 7 1 -1.0 186.652618 7.784467 66.523331
379 7 1 -1.0 185.843597 8.372251 67.038368
380 7 1 -1.0 186.281967 7.473457 66.599998
381 7 1 -1.0 186.574341 8.429762 65.605476
382 7 1 -1.0 186.265320 9.380817 65.761909
383 7 1 -1.0 187.198898 9.739185 65.571098
384 7 1 -1.0 186.242599 9.446812 65.011902
385 7 1 -1.0 187.117218 9.931622 65.990051
386 7 1 -1.0 186.617218 9.065596 65.062866
387 7 1 -1.0 187.232880 9.853606 64.854950
388 7 1 -1.0 186.842148 10.774110 65.028603
389 7 1 -1.0 186.065002 11.403429 64.108101
390 7 1 -1.0 185.333649 12.085426 63.685482
391 7 1 -1.0 186.040756 11.378321 63.310875
392 7 1 -1.0 185.682388 12.311900 62.591537
393 7 1 -1.0 185.682388 13.311900 63.390175
394 7 1 -1.0 186.255966 12.492748 62.581158
395 7 1 -1.0 185.261444 12.597275 62.737595
396 7 1 -1.0 185.684067 13.503583 62.979519
397 7 1 -1.0 186.654358 13.745505 62.122353
398 7 1 -1.0 186.741516 12.749310 62.414722
399 7 1 -1.0 187.681213 13.091331 63.341908
400 7 1 -1.0 187.388840 14.047636 63.394245
401 7 1 -1.0 187.562485 13.062828 63.152325
402 7 1 -1.0 186.611435 12.753810 64.137131
403 7 1 -1.0 187.420456 13.341596 63.382423
404 7 1 -1.0 188.268509 12.811677 63.434761
405 7 1 -1.0 188.077698 13.793303 64.400688
406 7 1 -1.0 187.608231 12.910356 65.229729
407 7 1 -1.0 188.108231 12.044331 66.086899
408 7 1 -1.0 187.951797 13.032019 66.461502
409 7 1 -1.0 187.829926 12.039473 66.600677
410 7 1 -1.0 187.471558 11.105891 66.178055
411 7 1 -1.0 187.471558 10.105891 65.458717
412 7 1 -1.0 188.100876 9.328746 66.246727
413 7 1 -1.0 187.710144 10.249249 65.552071
414 7 1 -1.0 188.283722 9.430098 64.564384
415 7 1 -1.0 187.309357 9.205145 65.341530
416 7 1 -1.0 186.331207 9.413055 64.466911
417 7 1 -1.0 186.072388 8.447129 64.571442
418 7 1 -1.0 186.414413 9.386822 63.637863
419 7 1 -1.0 185.419891 9.491348 64.253525
420 7 1 -1.0 186.248932 8.932156 63.257332
421 8 1 1.0 192.000000 12.000000 68.000000
422 8 1 1.0 191.000610 11.965098 67.000153
423 8 1 1.0 190.861435 10.974830 67.530075
424 8 1 1.0 190.062805 10.373013 66.710922
425 8 1 1.0 189.078003 10.199364 66.641167
426 8 1 1.0 188.229950 9.669443 67.348274
427 8 1 1.0 189.104568 9.184634 67.607094
428 8 1 1.0 188.713837 10.105138 66.708298
429 8 1 1.0 189.120575 11.018683 66.673393
430 8 1 1.0 188.651108 10.135736 65.774597
431 8 1 1.0 188.529236 9.143189 64.875801
432 8 1 1.0 189.211227 8.411837 65.875648
433 8 1 1.0 189.954376 7.742707 66.875496
434 8 1 1.0 188.954376 7.742705 67.477310
435 8 1 1.0 187.984085 7.500782 67.752945
436 8 1 1.0 188.276459 8.457087 68.472282
437 8 1 1.0 187.647141 7.679940 67.511017
438 8 1 1.0 186.652618 7.784467 66.523331
439 8 1 1.0 185.843597 8.372251 67.038368
440 8 1 1.0 186.281967 7.473457 66.599998
441 8 1 1.0 186.574341 8.429762 65.605476
442 8 1 1.0 186.265320 9.380817 65.761909
443 8 1 1.0 187.198898 9.739185 65.571098
444 8 1 1.0 186.242599 9.446812 65.011902
445 8 1 1.0 187.117218 9.931622 65.990051
446 8 1 1.0 186.617218 9.065596 65.062866
447 8 1 1.0 187.232880 9.853606 64.854950
448 8 1 1.0 186.842148 10.774110 65.028603
449 8 1 1.0 186.065002 11.403429 64.108101
450 8 1 1.0 185.333649 12.085426 63.685482
451 8 1 1.0 186.040756 11.378321 63.310875
452 8 1 1.0 185.682388 12.311900 62.591537
453 8 1 1.0 185.682388 13.311900 63.390175
454 8 1 1.0 186.255966 12.492748 62.581158
455 8 1 1.0 185.261444 12.597275 62.737595
456 8 1 1.0 185.684067 13.503583 62.979519
457 8 1 1.0 186.654358 13.745505 62.122353
458 8 1 1.0 186.741516 12.749310 62.414722
459 8 1 1.0 187.681213 13.091331 63.341908
460 8 1 1.0 187.388840 14.047636 63.394245
461 8 1 1.0 187.562485 13.062828 63.152325
462 8 1 1.0 186.611435 12.753810 64.137131
463 8 1 1.0 187.420456 13.341596 63.382423
464 8 1 1.0 188.268509 12.811677 63.434761
465 8 1 1.0 188.077698 13.793303 64.400688
466 8 1 1.0 187.608231 12.910356 65.229729
467 8 1 1.0 188.108231 12.044331 66.086899
468 8 1 1.0 187.951797 13.032019 66.461502
469 8 1 1.0 187.829926 12.039473 66.600677
470 8 1 1.0 187.471558 11.105891 66.178055
471 8 1 1.0 187.471558 10.105891 65.458717
472 8 1 1.0 188.100876 9.328746 66.246727
473 8 1 1.0 187.710144 10.249249 65.552071
474 8 1 1.0 188.283722 9.430098 64.564384
475 8 1 1.0 187.309357 9.205145 65.341530
476 8 1 1.0 186.331207 9.413055 64.466911
477 8 1 1.0 186.072388 8.447129 64.571442
478 8 1 1.0 186.414413 9.386822 63.637863
479 8 1 1.0 185.419891 9.491348 64.253525
480 8 1 1.0 186.248932 8.932156 63.257332
481 9 1 -1.0 192.000000 12.000000 68.000000
482 9 1 -1.0 191.000610 11.965098 67.000153
483 9 1 -1.0 190.861435 10.974830 67.530075
484 9 1 -1.0 190.062805 10.373013 66.710922
485 9 1 -1.0 189.078003 10.199364 66.641167
486 9 1 -1.0 188.229950 9.669443 67.348274
487 9 1 -1.0 189.104568 9.184634 67.607094
488 9 1 -1.0 188.713837 10.105138 66.708298
489 9 1 -1.0 189.120575 11.018683 66.673393
490 9 1 -1.0 188.651108 10.135736 65.774597
491 9 1 -1.0 188.529236 9.143189 64.875801
492 9 1 -1.0 189.211227 8.411837 65.875648
493 9 1 -1.0 189.954376 7.742707 66.875496
494 9 1 -1.0 188.954376 7.742705 67.477310
495 9 1 -1.0 187.984085 7.500782 67.752945
496 9 1 -1.0 188.276459 8.457087 68.472282
497 9 1 -1.0 187.647141 7.679940 67.511017
498 9 1 -1.0 186.652618 7.784467 66.523331
499 9 1 -1.0 185.843597 8.372251 67.038368
500 9 1 -1.0 186.281967 7.473457 66.599998
501 9 1 -1.0 186.574341 8.429762 65.605476
502 9 1 -1.0 186.265320 9.380817 65.761909
503 9 1 -1.0 187.198898 9.739185 65.571098
504 9 1 -1.0 186.242599 9.446812 65.011902
505 9 1 -1.0 187.117218 9.931622 65.990051
506 9 1 -1.0 186.617218 9.065596 65.062866
507 9 1 -1.0 187.232880 9.853606 64.854950
508 9 1 -1.0 186.842148 10.774110 65.028603
509 9 1 -1.0 186.065002 11.403429 64.108101
510 9 1 -1.0 185.333649 12.085426 63.685482
511 9 1 -1.0 186.040756 11.378321 63.310875
512 9 1 -1.0 185.682388 12.311900 62.591537
513 9 1 -1.0 185.682388 13.311900 63.390175
514 9 1 -1.0 186.255966 12.492748 62.581158
515 9 1 -1.0 185.261444 12.597275 62.737595
516 9 1 -1.0 185.684067 13.503583 62.979519
517 9 1 -1.0 186.654358 13.745505 62.122353
518 9 1 -1.0 186.741516 12.749310 62.414722
519 9 1 -1.0 187.681213 13.091331 63.341908
520 9 1 -1.0 187.388840 14.047636 63.394245
521 9 1 -1.0 187.562485 13.062828 63.152325
522 9 1 -1.0 186.611435 12.753810 64.137131
523 9 1 -1.0 187.420456 13.341596 63.382423
524 9 1 -1.0 188.268509 12.811677 63.434761
525 9 1 -1.0 188.077698 13.793303 64.400688
526 9 1 -1.0 187.608231 12.910356 65.229729
527 9 1 -1.0 188.108231 12.044331 66.086899
528 9 1 -1.0 187.951797 13.032019 66.461502
529 9 1 -1.0 187.829926 12.039473 66.600677
530 9 1 -1.0 187.471558 11.105891 66.178055
531 9 1 -1.0 187.471558 10.105891 65.458717
532 9 1 -1.0 188.100876 9.328746 66.246727
533 9 1 -1.0 187.710144 10.249249 65.552071
534 9 1 -1.0 188.283722 9.430098 64.564384
535 9 1 -1.0 187.309357 9.205145 65.341530
536 9 1 -1.0 186.331207 9.413055 64.466911
537 9 1 -1.0 186.072388 8.447129 64.571442
538 9 1 -1.0 186.414413 9.386822 63.637863
539 9 1 -1.0 185.419891 9.491348 64.253525
540 9 1 -1.0 186.248932 8.932156 63.257332
541 10 1 1.0 192.000000 12.000000 68.000000
542 10 1 1.0 191.000610 11.965098 67.000153
543 10 1 1.0 190.861435 10.974830 67.530075
544 10 1 1.0 190.062805 10.373013 66.710922
545 10 1 1.0 189.078003 10.199364 66.641167
546 10 1 1.0 188.229950 9.669443 67.348274
547 10 1 1.0 189.104568 9.184634 67.607094
548 10 1 1.0 188.713837 10.105138 66.708298
549 10 1 1.0 189.120575 11.018683 66.673393
550 10 1 1.0 188.651108 10.135736 65.774597
551 10 1 1.0 188.529236 9.143189 64.875801
552 10 1 1.0 189.211227 8.411837 65.875648
553 10 1 1.0 189.954376 7.742707 66.875496
554 10 1 1.0 188.954376 7.742705 67.477310
555 10 1 1.0 187.984085 7.500782 67.752945
556 10 1 1.0 188.276459 8.457087 68.472282
557 10 1 1.0 187.647141 7.679940 67.511017
558 10 1 1.0 186.652618 7.784467 66.523331
559 10 1 1.0 185.843597 8.372251 67.038368
560 10 1 1.0 186.281967 7.473457 66.599998
561 10 1 1.0 186.574341 8.429762 65.605476
562 10 1 1.0 186.265320 9.380817 65.761909
563 10 1 1.0 187.198898 9.739185 65.571098
564 10 1 1.0 186.242599 9.446812 65.011902
565 10 1 1.0 187.117218 9.931622 65.990051
566 10 1 1.0 186.617218 9.065596 65.062866
567 10 1 1.0 187.232880 9.853606 64.854950
568 10 1 1.0 186.842148 10.774110 65.028603
569 10 1 1.0 186.065002 11.403429 64.108101
570 10 1 1.0 185.333649 12.085426 63.685482
571 10 1 1.0 186.040756 11.378321 63.310875
572 10 1 1.0 185.682388 12.311900 62.591537
573 10 1 1.0 185.682388 13.311900 63.390175
574 10 1 1.0 186.255966 12.492748 62.581158
575 10 1 1.0 185.261444 12.597275 62.737595
576 10 1 1.0 185.684067 13.503583 62.979519
577 10 1 1.0 186.654358 13.745505 62.122353
578 10 1 1.0 186.741516 12.749310 62.414722
579 10 1 1.0 187.681213 13.091331 63.341908
580 10 1 1.0 187.388840 14.047636 63.394245
581 10 1 1.0 187.562485 13.062828 63.152325
582 10 1 1.0 186.611435 12.753810 64.137131
583 10 1 1.0 187.420456 13.341596 63.382423
584 10 1 1.0 188.268509 12.811677 63.434761
585 10 1 1.0 188.077698 13.793303 64.400688
586 10 1 1.0 187.608231 12.910356 65.229729
587 10 1 1.0 188.108231 12.044331 66.086899
588 10 1 1.0 187.951797 13.032019 66.461502
589 10 1 1.0 187.829926 12.039473 66.600677
590 10 1 1.0 187.471558 11.105891 66.178055
591 10 1 1.0 187.471558 10.105891 65.458717
592 10 1 1.0 188.100876 9.328746 66.246727
593 10 1 1.0 187.710144 10.249249 65.552071
594 10 1 1.0 188.283722 9.430098 64.564384
595 10 1 1.0 187.309357 9.205145 65.341530
596 10 1 1.0 186.331207 9.413055 64.466911
597 10 1 1.0 186.072388 8.447129 64.571442
598 10 1 1.0 186.414413 9.386822 63.637863
599 10 1 1.0 185.419891 9.491348 64.253525
600 10 1 1.0 186.248932 8.932156 63.257332
601 11 1 -1.0 192.000000 12.000000 68.000000
602 11 1 -1.0 191.000610 11.965098 67.000153
603 11 1 -1.0 190.861435 10.974830 67.530075
604 11 1 -1.0 190.062805 10.373013 66.710922
605 11 1 -1.0 189.078003 10.199364 66.641167
606 11 1 -1.0 188.229950 9.669443 67.348274
607 11 1 -1.0 189.104568 9.184634 67.607094
608 11 1 -1.0 188.713837 10.105138 66.708298
609 11 1 -1.0 189.120575 11.018683 66.673393
610 11 1 -1.0 188.651108 10.135736 65.774597
611 11 1 -1.0 188.529236 9.143189 64.875801
612 11 1 -1.0 189.211227 8.411837 65.875648
613 11 1 -1.0 189.954376 7.742707 66.875496
614 11 1 -1.0 188.954376 7.742705 67.477310
615 11 1 -1.0 187.984085 7.500782 67.752945
616 11 1 -1.0 188.276459 8.457087 68.472282
617 11 1 -1.0 187.647141 7.679940 67.511017
618 11 1 -1.0 186.652618 7.784467 66.523331
619 11 1 -1.0 185.843597 8.372251 67.038368
620 11 1 -1.0 186.281967 7.473457 66.599998
621 11 1 -1.0 186.574341 8.429762 65.605476
622 11 1 -1.0 186.265320 9.380817 65.761909
623 11 1 -1.0 187.198898 9.739185 65.571098
624 11 1 -1.0 186.242599 9.446812 65.011902
625 11 1 -1.0 187.117218 9.931622 65.990051
626 11 1 -1.0 186.617218 9.065596 65.062866
627 11 1 -1.0 187.232880 9.853606 64.854950
628 11 1 -1.0 186.842148 10.774110 65.028603
629 11 1 -1.0 186.065002 11.403429 64.108101
630 11 1 -1.0 185.333649 12.085426 63.685482
631 11 1 -1.0 186.040756 11.378321 63.310875
632 11 1 -1.0 185.682388 12.311900 62.591537
633 11 1 -1.0 185.682388 13.311900 63.390175
634 11 1 -1.0 186.255966 12.492748 62.581158
635 11 1 -1.0 185.261444 12.597275 62.737595
636 11 1 -1.0 185.684067 13.503583 62.979519
637 11 1 -1.0 186.654358 13.745505 62.122353
638 11 1 -1.0 186.741516 12.749310 62.414722
639 11 1 -1.0 187.681213 13.091331 63.341908
640 11 1 -1.0 187.388840 14.047636 63.394245
641 11 1 -1.0 187.562485 13.062828 63.152325
642 11 1 -1.0 186.611435 12.753810 64.137131
643 11 1 -1.0 187.420456 13.341596 63.382423
644 11 1 -1.0 188.268509 12.811677 63.434761
645 11 1 -1.0 188.077698 13.793303 64.400688
646 11 1 -1.0 187.608231 12.910356 65.229729
647 11 1 -1.0 188.108231 12.044331 66.086899
648 11 1 -1.0 187.951797 13.032019 66.461502
649 11 1 -1.0 187.829926 12.039473 66.600677
650 11 1 -1.0 187.471558 11.105891 66.178055
651 11 1 -1.0 187.471558 10.105891 65.458717
652 11 1 -1.0 188.100876 9.328746 66.246727
653 11 1 -1.0 187.710144 10.249249 65.552071
654 11 1 -1.0 188.283722 9.430098 64.564384
655 11 1 -1.0 187.309357 9.205145 65.341530
656 11 1 -1.0 186.331207 9.413055 64.466911
657 11 1 -1.0 186.072388 8.447129 64.571442
658 11 1 -1.0 186.414413 9.386822 63.637863
659 11 1 -1.0 185.419891 9.491348 64.253525
660 11 1 -1.0 186.248932 8.932156 63.257332
661 12 1 1.0 192.000000 12.000000 68.000000
662 12 1 1.0 191.000610 11.965098 67.000153
663 12 1 1.0 190.861435 10.974830 67.530075
664 12 1 1.0 190.062805 10.373013 66.710922
665 12 1 1.0 189.078003 10.199364 66.641167
666 12 1 1.0 188.229950 9.669443 67.348274
667 12 1 1.0 189.104568 9.184634 67.607094
668 12 1 1.0 188.713837 10.105138 66.708298
669 12 1 1.0 189.120575 11.018683 66.673393
670 12 1 1.0 188.651108 10.135736 65.774597
671 12 1 1.0 188.529236 9.143189 64.875801
672 12 1 1.0 189.211227 8.411837 65.875648
673 12 1 1.0 189.954376 7.742707 66.875496
674 12 1 1.0 188.954376 7.742705 67.477310
675 12 1 1.0 187.984085 7.500782 67.752945
676 12 1 1.0 188.276459 8.457087 68.472282
677 12 1 1.0 187.647141 7.679940 67.511017
678 12 1 1.0 186.652618 7.784467 66.523331
679 12 1 1.0 185.843597 8.372251 67.038368
680 12 1 1.0 186.281967 7.473457 66.599998
681 12 1 1.0 186.574341 8.429762 65.605476
682 12 1 1.0 186.265320 9.380817 65.761909
683 12 1 1.0 187.198898 9.739185 65.571098
684 12 1 1.0 186.242599 9.446812 65.011902
685 12 1 1.0 187.117218 9.931622 65.990051
686 12 1 1.0 186.617218 9.065596 65.062866
687 12 1 1.0 187.232880 9.853606 64.854950