BD polyelectrolyte simulations - created on Sun Dec  3 22:39:25 EST 2023


9350 atoms
1 atom types
9250 bonds
1 bond types

0 300.000 xlo xhi
0 300.000 ylo yhi
0 300.000 zlo zhi

Masses

1 1

Atoms

1 1 1 150.000000 150.000000 150.000000
2 1 1 150.146591 150.869339 150.699432
3 1 1 149.591751 151.177155 150.020187
4 1 1 150.359329 151.543213 149.697647
5 1 1 149.576477 151.449142 150.133972
6 1 1 149.561111 151.262024 149.234116
7 1 1 149.560013 152.161880 150.131927
8 1 1 149.920517 152.318161 150.954117
9 1 1 149.631973 152.931961 150.145203
10 1 1 150.368927 152.481964 149.852188
11 1 1 150.706024 151.647491 149.836472
12 1 1 151.418579 151.170563 150.158997
13 1 1 151.249435 151.860001 149.298325
14 1 1 151.050842 152.720673 149.888779
15 1 1 151.767899 152.191666 150.045059
16 1 1 152.011322 151.601212 150.885284
17 1 1 151.956421 152.492447 151.694199
18 1 1 151.758560 153.338165 152.383636
19 1 1 151.697922 153.571106 153.281448
20 1 1 151.607925 154.416824 154.142120
21 1 1 152.083038 154.338379 153.378876
22 1 1 152.715759 154.090302 152.765076
23 1 1 152.743988 153.190857 153.159607
24 1 1 152.951172 154.041824 153.796005
25 1 1 152.313736 153.487732 154.190536
26 1 1 152.545639 152.678818 154.918655
27 1 1 152.475754 153.087418 155.815231
28 1 1 153.159836 153.577591 156.195587
29 1 1 153.129120 153.764709 157.095032
30 1 1 153.063065 152.949036 157.981354
31 1 1 153.127533 152.055740 158.709473
32 1 1 153.806671 152.646194 158.725174
33 1 1 154.137619 152.474472 159.559647
34 1 1 154.324280 152.537247 160.439972
35 1 1 154.248169 153.417572 161.262161
36 1 1 154.474792 153.783630 162.127304
37 1 1 154.750198 152.927673 162.252563
38 1 1 154.008636 153.391205 162.004486
39 1 1 154.671265 153.907425 161.609955
40 1 1 154.957520 153.120270 160.930710
41 1 1 154.404190 153.829483 160.883606
42 1 1 153.597244 153.766693 161.278137
43 1 1 154.201126 153.119293 161.511078
44 1 1 153.665604 152.419861 161.218063
45 1 1 153.787521 153.275818 162.026978
46 1 1 154.191086 153.416611 161.225067
47 1 1 154.533768 152.614700 160.734894
48 1 1 154.425018 153.423615 161.600037
49 1 1 154.855362 153.160477 162.379456
50 1 1 154.165817 153.526535 162.869629
51 1 1 153.811844 152.798416 163.538452
52 1 1 154.457840 152.207962 163.816574
53 1 1 154.183731 152.962769 164.562714
54 1 1 154.911407 152.931351 164.033707
55 1 1 154.629318 152.495026 164.873932
56 1 1 153.862335 152.292572 164.437607
57 1 1 154.274887 151.999557 165.224762
58 1 1 154.056732 152.736801 164.409088
59 1 1 154.109131 153.613739 165.278427
60 1 1 153.768631 154.261139 166.033234
61 1 1 154.651550 154.089417 166.064651
62 1 1 154.775589 153.309998 166.929794
63 1 1 155.206985 153.773529 167.675934
64 1 1 155.060135 154.081345 168.562256
65 1 1 154.424606 154.128448 169.198654
66 1 1 154.203293 153.299988 169.898087
67 1 1 154.158752 154.198761 169.605072
68 1 1 154.104385 155.096573 170.055069
69 1 1 154.700317 154.744919 169.429871
70 1 1 155.237946 154.527191 168.720657
71 1 1 154.900803 155.361664 168.720657
72 1 1 154.749176 155.784195 167.837189
73 1 1 154.695999 154.997040 166.943893
74 1 1 154.665070 155.896484 166.787613
75 1 1 154.587387 155.771225 167.684189
76 1 1 154.390747 154.942764 168.430328
77 1 1 154.343994 154.043991 168.320648
78 1 1 154.020493 154.733429 167.574509
79 1 1 154.365555 153.924515 168.010834
80 1 1 154.411163 153.029449 168.797989
81 1 1 155.238495 152.781372 169.061127
82 1 1 155.520157 152.533295 168.210159
83 1 1 155.271133 153.062302 169.055878
84 1 1 155.870056 152.393463 168.961807
85 1 1 155.080338 152.802048 169.118088
86 1 1 154.329666 152.896118 168.627914
87 1 1 155.064468 152.739838 168.124634
88 1 1 155.173340 153.519257 168.997894
89 1 1 155.521698 152.710342 168.575378
90 1 1 155.408585 151.888153 169.431335
91 1 1 154.918716 151.133347 169.399933
92 1 1 155.618622 151.381424 168.870926
93 1 1 156.043762 150.594269 169.073380
94 1 1 155.605988 151.071198 169.810623
95 1 1 155.060318 150.914917 169.101410
96 1 1 154.961151 151.678162 168.221085
97 1 1 154.931763 152.512634 167.324509
98 1 1 154.646378 153.284088 168.033722
99 1 1 153.940811 152.742462 168.205444
100 1 1 153.548431 152.648392 167.396530
101 1 1 154.431351 152.616989 167.568253
102 1 1 154.510254 153.510284 168.193451
103 1 1 154.345535 154.146683 169.062790
104 1 1 154.070190 154.454498 168.211823
105 1 1 154.224152 153.581238 167.575424
106 1 1 154.083359 153.581238 168.464340
107 1 1 154.802505 153.722031 168.993347
108 1 1 154.459427 153.096832 169.756592
109 1 1 154.280991 153.966171 169.178085
110 1 1 154.310379 153.131714 168.281509
111 2 2 150.000000 150.000000 150.000000
112 2 2 150.882919 150.171722 150.031418
113 2 2 151.649780 150.434860 150.440018
114 2 2 151.684235 151.333633 149.826218
115 2 2 152.485046 151.742233 149.779114
116 2 2 152.695419 152.607376 150.256042
117 2 2 152.364975 153.435837 150.563858
118 2 2 152.970871 152.822037 150.915512
119 2 2 153.134659 153.698975 150.386505
120 2 2 153.039673 153.248978 151.279800
121 2 2 153.240372 152.719971 150.414673
122 2 2 153.247971 151.846710 151.314117
123 2 2 153.597702 151.752640 150.485657
124 2 2 154.100662 152.498779 150.454254
125 2 2 153.627747 153.244919 150.146439
126 2 2 153.565125 152.347107 150.209213
127 2 2 154.150925 151.995453 149.572815
128 2 2 154.636795 151.348053 150.139206
129 2 2 154.908829 152.204010 149.952087
130 2 2 155.258438 151.457870 150.599487
131 2 2 154.537735 151.690811 150.096222
132 2 2 153.975815 152.085342 149.448822
133 2 2 153.664276 152.318283 150.289047
134 2 2 153.691742 151.881958 151.188492
135 2 2 153.150116 151.163193 151.188492
136 2 2 154.000198 151.022400 151.451630
137 2 2 153.785034 150.294281 152.273819
138 2 2 154.075195 149.443314 152.399078
139 2 2 154.022461 148.554398 151.564621
140 2 2 154.579514 147.906998 151.156036
141 2 2 154.043716 147.328491 151.722427
142 2 2 153.937958 146.459152 150.920517
143 2 2 153.844391 147.354218 150.826447
144 2 2 153.974533 146.664780 151.703384
145 2 2 153.500214 146.570709 152.466629
146 2 2 153.274658 146.107178 153.327301
147 2 2 153.321579 145.208405 153.405746
148 2 2 153.569382 145.616989 152.549789
149 2 2 153.089920 145.429871 151.794983
150 2 2 153.360901 144.573914 151.997437
151 2 2 153.560730 143.722946 151.339218
152 2 2 153.109238 143.286621 150.601974
153 2 2 153.078796 142.499466 151.499786
154 2 2 153.076065 141.613144 152.399643
155 2 2 153.694641 141.109879 152.902924
156 2 2 153.274429 140.315231 152.996994
157 2 2 153.381454 139.454559 153.819183
158 2 2 153.172165 139.206482 152.945923
159 2 2 152.735535 139.985901 153.163651
160 2 2 152.359070 139.577301 153.958298
161 2 2 152.468491 140.470596 153.895523
162 2 2 151.598450 140.298874 154.051804
163 2 2 151.254623 141.086029 153.497711
164 2 2 151.085510 141.242310 152.614243
165 2 2 151.392517 140.752136 151.792053
166 2 2 151.373184 141.651581 152.501266
167 2 2 151.247162 140.823120 151.661041
168 2 2 150.356049 140.885895 151.551361
169 2 2 149.617065 141.280426 151.917419
170 2 2 149.554443 140.389191 151.138000
171 2 2 149.571091 139.625946 152.037445
172 2 2 149.401947 138.765274 151.348007
173 2 2 148.755920 139.159805 151.889648
174 2 2 148.818665 139.128387 152.787460
175 2 2 149.314041 138.428955 152.351135
176 2 2 149.199615 138.062897 151.459900
177 2 2 149.856491 138.471481 151.976120
178 2 2 149.866196 137.615524 152.875565
179 2 2 149.408066 138.343643 152.425568
180 2 2 149.050644 137.556488 151.909348
181 2 2 148.970001 136.661423 151.445816
182 2 2 149.025436 137.559235 151.868347
183 2 2 148.903503 136.670319 151.418350
184 2 2 149.623718 136.206787 151.740875
185 2 2 149.094788 136.934906 151.756577
186 2 2 149.100677 136.035049 152.591049
187 2 2 149.339890 135.468658 153.436768
188 1 1 150.000000 150.000000 150.000000
189 1 1 149.133041 150.156281 149.812881
190 1 1 149.871353 149.666107 150.000000
191 1 1 150.304688 148.937988 150.516220
192 1 1 150.898758 149.528442 150.952545
193 1 1 151.382431 148.870224 151.506638
194 1 1 151.188446 149.633469 152.328827
195 1 1 151.716156 150.361588 152.266052
196 1 1 151.667709 151.256653 151.494598
197 1 1 152.486847 151.593796 151.322876
198 1 1 152.831909 151.157471 152.131790
199 1 1 153.665924 151.359924 151.853668
200 1 1 153.659363 152.257736 152.748734
201 1 1 152.915680 152.460190 152.271805
202 1 1 152.210922 151.996658 152.637863
203 1 1 151.939133 152.419189 151.792145
204 1 1 152.532013 151.760971 151.559204
205 1 1 152.010483 152.210968 150.890366
206 1 1 152.073395 151.473724 151.783661
207 1 1 151.730743 151.271271 150.955200
208 1 1 152.177383 152.050690 151.064880
209 1 1 151.944595 151.181351 151.096298
210 1 1 152.008255 150.320679 150.223038
211 1 1 151.501526 149.583435 150.394760
212 1 1 151.695129 149.846573 149.517822
213 1 1 151.938034 149.137360 148.708908
214 1 1 152.110718 148.321686 149.510818
215 1 1 151.563919 147.674286 149.074493
216 1 1 151.834412 147.184113 149.914719
217 1 1 151.318512 147.921356 149.883316
218 1 1 151.312515 147.021912 150.766785
219 1 1 152.175369 146.788971 150.876465
220 1 1 152.130981 145.891159 151.512863
221 1 1 151.542740 145.300705 151.962860
222 1 1 151.760437 146.173965 151.978561
223 1 1 151.243393 146.715591 151.353363
224 1 1 151.945694 146.590332 150.799271
225 1 1 151.957962 145.693756 149.910355
226 1 1 151.618561 144.871567 150.247498
227 1 1 151.068359 145.149689 150.936935
228 1 1 151.060989 144.260773 150.038162
229 1 1 150.709106 143.438583 150.286240
230 1 1 150.526505 142.565323 150.776413
231 1 1 150.220978 142.675003 151.622131
232 1 1 150.627136 142.923080 152.416779
233 1 1 151.417480 143.171158 152.782837
234 1 1 150.764511 143.737549 153.105362
235 1 1 150.498550 144.000687 152.249405
236 1 1 151.282715 144.437012 152.170959
237 1 1 151.155106 145.317337 152.829178
238 1 1 150.282974 145.411407 152.626724
239 1 1 150.844299 144.721970 152.844452
240 1 1 150.380341 144.022537 153.360672
241 1 1 150.626907 143.408737 154.195145
242 1 1 149.760773 143.611191 154.054352
243 1 1 150.419434 143.454910 153.452133
244 1 1 150.590378 142.574585 153.818192
245 1 1 149.779175 142.480515 154.198547
246 1 1 150.215439 143.267670 154.214249
247 1 1 149.792343 143.881470 153.524811
248 1 1 149.414825 143.065796 153.634491
249 1 1 149.262100 143.930939 152.925278
250 1 1 148.984985 144.759399 153.479370
251 1 1 149.037598 144.013260 154.374435
252 1 1 149.692215 144.627060 154.280365
253 1 1 149.863708 145.510529 154.233261
254 1 1 150.420319 146.146927 153.796936
255 1 1 149.817795 145.975204 153.138718
256 1 1 150.212082 146.784119 153.170135
257 1 1 149.867371 145.968445 153.550491
258 1 1 150.680603 146.140167 153.902145
259 1 1 150.504776 146.968628 153.122726
260 1 1 151.077805 146.310410 152.800186
261 1 1 150.782883 145.820236 151.971725
262 1 1 151.555481 145.512421 151.605667
263 1 1 152.277298 145.249283 152.095840
264 1 1 152.734909 145.571808 151.341034
265 1 1 153.319580 145.094879 150.762527
266 1 1 153.478821 144.481079 151.635788
267 1 1 153.443710 145.227219 152.533600
268 1 1 153.348724 144.333923 152.983597
269 1 1 153.416245 143.440628 152.274384
270 1 1 152.747513 143.456329 152.876602
271 1 1 151.864563 143.534775 152.720322
272 1 1 151.016937 143.409515 152.442200
273 1 1 151.490829 143.925735 151.752762
274 1 1 151.936447 144.516190 152.432007
275 1 1 152.484314 145.118408 151.915787
276 1 1 152.633545 145.964127 151.128632
277 1 1 152.023987 145.487198 150.586990
278 1 1 151.552429 144.945572 151.266235
279 1 1 151.657715 145.791290 152.111954
280 1 1 151.241577 145.166092 151.422516
281 1 1 150.948746 146.017059 151.391113
282 1 1 151.750534 146.425644 151.375397
283 1 1 151.489487 146.902573 150.529678
284 1 1 151.859039 147.338898 149.735031
285 1 1 151.896561 148.184616 148.841736
286 1 1 151.382812 147.475403 149.178879
287 1 1 151.575256 146.614731 149.792679
288 1 1 151.575256 146.801849 148.892685
289 1 1 152.391312 146.911530 149.258743
290 1 1 152.520920 147.501984 148.375275
291 1 1 151.740875 147.330261 148.797806
292 1 1 151.490616 147.608383 149.658478
293 1 1 151.205109 147.405930 148.807510
294 1 1 151.096024 147.311859 149.700806
295 1 1 150.386917 147.327560 149.146713
296 1 1 150.723679 147.996384 148.400574
297 1 1 150.742584 147.096939 147.681808
298 2 2 150.000000 150.000000 150.000000
299 2 2 149.564728 150.062775 150.787155
300 2 2 149.498810 150.913742 151.664093
301 2 2 148.799484 150.898026 151.097702
302 2 2 149.308456 150.590210 150.378937
303 2 2 149.391937 149.749985 151.248276
304 2 2 149.301834 149.124786 150.357040
305 2 2 148.466171 149.372864 150.124100
306 2 2 148.546936 148.507721 149.273132
307 2 2 148.877823 149.316635 149.763306
308 2 2 148.963242 148.658417 148.872070
309 2 2 148.618515 148.079910 148.092651
310 2 2 149.350937 148.251633 147.589386
311 2 2 149.350937 147.351639 148.203186
312 2 2 148.855316 146.605499 148.046906
313 2 2 148.154968 146.403046 147.505280
314 2 2 148.784424 147.016846 147.768417
315 2 2 149.101440 147.466843 146.946228
316 2 2 148.694092 146.679688 147.268753
317 2 2 148.650742 146.328033 148.167526
318 2 2 148.783035 146.020218 149.056442
319 2 2 148.513321 146.871185 149.408096
320 2 2 148.484970 146.152420 150.306870
321 2 2 149.089371 145.527222 150.629395
322 2 2 148.770599 144.692764 150.336380
323 2 2 149.604553 144.724182 149.999237
324 2 2 149.604553 145.403427 149.099243
325 2 2 148.737793 145.621155 149.208923
326 2 2 148.616043 146.367294 148.335663
327 2 2 148.251984 145.838287 147.556244
328 2 2 148.477997 145.620560 148.425583
329 2 2 148.049286 146.056885 149.180389
330 2 2 148.371765 146.897110 149.196091
331 2 2 148.685638 146.109955 148.570892
332 2 2 148.680786 146.965912 149.470749
333 2 2 148.634262 146.825119 148.571976
334 2 2 148.788177 146.668839 147.685654
335 2 2 149.004700 145.905594 148.487564
336 2 2 149.683350 145.339203 148.705292
337 2 2 149.702744 146.237015 149.561249
338 2 2 149.676407 146.727188 148.661804
339 2 2 150.463089 146.695786 149.098129
340 2 2 151.327698 146.664383 148.850052
341 2 2 152.192307 146.416306 148.881470
342 2 2 152.408417 146.306625 148.008209
343 2 2 153.235870 146.150345 147.685669
344 2 2 154.081467 146.134628 147.993484
345 2 2 154.857224 145.754272 147.715363
346 2 2 154.620178 146.605240 147.186356
347 2 2 154.468796 147.485565 147.715363
348 2 2 154.500198 147.501266 146.815918
349 2 2 154.984344 148.256073 146.956711
350 2 2 154.104141 148.443192 146.940994
351 2 2 154.548508 147.697052 147.363525
352 2 2 155.114914 148.238678 147.917618
353 2 2 154.227066 148.363937 147.839172
354 2 2 155.112854 148.332535 147.682892
355 2 2 155.557220 147.910019 146.936752
356 2 2 155.422623 147.029694 147.561951
357 2 2 155.341858 146.164551 146.710983
358 2 2 155.434875 145.687622 145.817688
359 2 2 155.970413 144.988190 145.524673
360 2 2 156.764465 145.159912 145.130142
361 2 2 157.214188 145.128510 144.350723
362 2 2 157.150620 144.306320 143.464401
363 2 2 157.239182 143.433060 144.286591
364 2 2 157.709381 144.011566 143.628372
365 2 2 156.925217 143.933121 143.192047
366 2 2 156.476318 143.870346 142.412628
367 2 2 156.694061 144.721313 141.810410
368 2 2 155.928955 144.271317 141.638687
369 2 2 156.047028 143.382401 142.128860
370 2 2 155.147308 143.398102 142.113144
371 2 2 154.989975 143.964493 142.990082
372 2 2 155.019363 143.067917 143.824554
373 2 2 155.400818 142.745392 143.022644
374 2 2 155.178711 142.203766 143.878601
375 1 1 150.000000 150.000000 150.000000
376 1 1 150.561920 149.352600 150.394531
377 1 1 149.790085 149.802597 150.519791
378 1 1 149.744919 148.904785 149.894592
379 1 1 150.413788 149.471176 150.157730
380 1 1 149.936935 148.707932 150.142029
381 1 1 150.350220 148.520813 149.347382
382 1 1 150.261642 147.629578 149.983780
383 1 1 150.401382 148.475296 149.181870
384 1 1 149.881058 149.065750 148.603363
385 1 1 149.691544 148.356537 147.757645
386 1 1 149.548386 147.720139 146.880707
387 1 1 149.839218 146.869171 146.990387
388 1 1 149.017151 146.884872 146.624329
389 1 1 148.514954 146.166107 146.287186
390 1 1 149.064468 145.575653 146.816193
391 1 1 149.025421 146.078934 145.917419
392 1 1 148.612137 146.873581 146.104538
393 1 1 148.436310 145.993240 145.796722
394 1 1 148.207825 146.739380 146.598633
395 1 1 148.006119 146.002136 147.427094
396 1 1 148.047363 145.193222 148.322159
397 1 1 148.895096 145.271667 148.615173
398 1 1 148.524490 145.474121 149.430847
399 1 1 148.635086 144.582886 149.853378
400 1 1 148.252090 143.864120 150.489777
401 1 1 148.127762 144.755356 150.599457
402 1 1 147.911240 145.518600 149.797546
403 1 1 148.109802 146.227814 148.957321
404 1 1 147.682343 145.637360 148.257889
405 1 1 147.807114 145.715805 147.366653
406 1 1 147.763748 144.817032 147.718307
407 1 1 147.006470 144.645309 147.254776
408 1 1 146.153107 144.473587 147.021835
409 1 1 146.641708 145.064041 146.396637
410 1 1 146.660751 144.177719 145.503342
411 1 1 146.474716 143.308380 146.044968
412 1 1 146.729218 142.492706 146.713791
413 1 1 146.624573 143.238846 145.833466
414 1 1 146.300323 144.026001 145.231247
415 1 1 146.535629 144.715439 146.053436
416 1 1 147.271072 144.199219 146.116211
417 1 1 147.349106 145.039444 145.242950
418 1 1 147.685394 144.210983 145.506088
419 1 1 148.488281 144.101303 145.111557
420 1 1 148.461746 143.203491 145.927231
421 1 1 147.570633 143.140701 146.036911
422 1 1 147.586807 144.040146 146.808365
423 1 1 146.815765 144.257874 147.230896
424 1 1 147.171631 144.894272 147.977036
425 1 1 147.437592 145.750229 147.713898
426 1 1 147.905441 145.369873 146.976654
427 1 1 147.488571 144.641754 146.422562
428 1 1 147.794098 144.751434 145.576843
429 1 1 148.199341 144.172928 146.304962
430 1 1 148.564606 144.944382 146.859055
431 1 1 148.503189 144.757263 147.756866
432 1 1 148.085953 145.260544 147.010727
433 1 1 148.011353 144.982422 146.114151
434 1 1 148.635757 144.659882 146.716370
435 1 1 148.285690 144.396744 145.894180
436 1 1 148.040039 145.257416 145.571640
437 1 1 148.166061 144.417191 146.400101
438 1 1 148.166061 143.517197 145.671982
439 1 1 148.860275 142.950806 145.562302
440 1 1 149.360458 142.222687 145.269287
441 1 1 149.895584 142.603043 144.590042
442 1 1 149.848251 143.468185 143.706573
443 1 1 149.880371 142.569412 143.048355
444 1 1 149.592209 143.364059 143.706573
445 1 1 149.420715 144.247528 143.659470
446 1 1 149.357254 143.350952 144.188477
447 1 1 149.351120 142.451096 143.360016
448 1 1 148.965591 141.872589 144.106155
449 1 1 148.550613 141.594482 143.319000
450 1 1 148.977432 142.148575 144.037766
451 1 1 148.575897 142.903381 144.553986
452 1 1 148.483551 142.008316 144.382263
453 1 1 148.389984 142.903381 144.476334
454 1 1 149.264786 143.105835 144.539108
455 1 1 149.943604 143.137238 145.129562
456 1 1 149.630280 142.308777 145.538147
457 1 1 148.765518 142.183517 145.320419
458 1 1 148.584091 141.318375 145.934219
459 1 1 149.162308 141.808548 145.355713
460 1 1 149.162308 140.908554 144.697495
461 1 1 149.520798 141.522354 145.452301
462 1 1 149.927841 140.720444 145.373856
463 1 1 149.111969 140.564163 145.022202
464 1 1 149.395157 139.864731 145.801620
465 1 1 150.246048 140.082458 145.599167
466 1 1 150.049408 140.910919 144.853027
467 1 1 149.727661 140.973694 144.012802
468 1 1 149.997040 140.145233 143.434296
469 1 1 150.357803 140.947144 143.011765
470 1 1 150.084198 141.572342 143.827438
471 1 1 150.176208 140.756668 142.954178
472 1 1 149.939163 140.227661 143.805145
473 1 1 149.939163 141.127655 144.559952
474 1 1 150.138535 140.305466 143.805145
475 1 1 149.352264 140.042328 144.171204
476 1 1 150.084839 139.676270 144.579788
477 1 1 150.083466 140.572845 145.479645
478 1 1 149.885925 140.095917 146.348984
479 1 1 150.192932 139.273727 146.839157
480 1 1 150.755096 139.383408 146.139725
481 1 1 150.479691 138.527451 146.014465
482 1 1 150.797501 139.264694 146.723679
483 1 1 150.648270 138.477539 145.877960
484 1 1 151.033798 137.899033 145.131821
485 2 2 150.000000 150.000000 150.000000
486 2 2 149.892639 149.108765 149.536469
487 2 2 150.246994 148.314117 150.026642
488 2 2 150.818985 147.677719 149.632111
489 2 2 150.665024 146.804459 148.995712
490 2 2 151.413559 146.340927 149.213440
491 2 2 151.020523 147.149841 149.134995
492 2 2 151.055527 147.752060 148.236221
493 2 2 151.514862 147.275131 148.954987
494 2 2 151.908432 147.337906 148.146072
495 2 2 151.663406 148.203049 148.286865
496 2 2 151.531967 147.880524 149.175781
497 2 2 152.262024 147.755264 148.659561
498 2 2 152.027664 147.018021 149.461472
499 2 2 151.294464 146.501801 149.367401
500 2 2 151.453323 147.160019 148.498062
501 2 2 152.019363 147.191422 147.798630
502 2 2 152.128113 146.326294 146.989716
503 2 2 151.758087 145.849365 147.776871
504 2 2 151.682953 145.307724 148.671936
505 2 2 151.174438 144.579605 148.920013
506 2 2 150.872284 145.425323 149.091736
507 2 2 150.092239 145.253601 149.514267
508 2 2 149.851852 145.619659 150.374939
509 2 2 149.719559 144.730743 150.682755
510 2 2 150.601852 144.871536 150.573074
511 2 2 149.920151 144.435211 150.123077
512 2 2 150.342636 143.707092 149.581436
513 2 2 150.142807 144.365311 148.730469
514 2 2 150.731857 143.696472 148.917587
515 2 2 151.298157 142.997040 148.901871
516 2 2 151.575363 142.202393 148.222626
517 2 2 151.033371 141.493179 148.035507
518 2 2 151.068619 142.327652 147.140442
519 2 2 150.299042 142.264877 147.603973
520 2 2 150.552643 141.455963 148.293411
521 2 2 150.902374 142.284424 148.199341
522 2 2 151.379990 142.486877 148.954147
523 2 2 150.816879 142.990158 149.544601
524 2 2 150.554245 143.679596 148.742691
525 2 2 149.738007 143.342453 148.929810
526 2 2 149.132751 143.620575 149.566208
527 2 2 149.152145 144.518387 150.422165
528 2 2 149.495972 143.731232 150.976257
529 2 2 150.047852 143.031799 150.773804
530 2 2 150.856766 143.426331 150.773804
531 2 2 150.147308 143.223877 150.244797
532 2 2 151.022110 143.286652 150.447250
533 2 2 151.265350 143.722977 151.303207
534 2 2 151.983215 144.001099 150.813034
535 2 2 152.549835 143.620743 151.460434
536 2 2 152.001968 143.104523 152.062653
537 2 2 151.872360 143.694977 152.946121
538 2 2 152.277771 143.258652 153.717575
539 2 2 152.425217 143.812744 154.597900
540 2 2 151.698105 143.765640 154.068893
541 2 2 150.882843 143.547913 154.391418
542 2 2 150.861099 142.656677 155.277740
543 2 2 150.195145 143.235184 155.510681
544 2 2 150.223648 144.132996 154.708771
545 2 2 150.167648 145.019318 153.868546
546 2 2 150.188293 145.828232 152.969772
547 2 2 150.217682 146.724808 153.804245
548 2 2 150.559433 147.047333 154.626434
549 2 2 149.701660 147.234451 154.423981
550 2 2 148.872498 146.941437 154.221527
551 2 2 148.687500 147.781662 154.958771
552 2 2 149.406601 148.217987 155.324829
553 2 2 148.928360 148.640518 154.606064
554 2 2 148.835709 149.535583 154.762344
555 2 2 149.391998 149.155228 154.104126
556 2 2 148.610641 149.563812 153.901672
557 2 2 147.792633 149.315735 154.194687
558 2 2 147.766296 148.416962 154.940826
559 2 2 146.877228 148.479736 155.066086
560 2 2 146.986099 147.700317 154.192825
561 2 2 147.551102 148.399750 154.255600
562 1 1 150.000000 150.000000 150.000000
563 1 1 149.445511 150.602219 149.496735
564 1 1 149.330154 151.411133 150.357407
565 1 1 149.847443 151.088608 151.066620
566 1 1 149.799347 150.190796 151.645126
567 1 1 149.435608 151.006470 151.908264
568 1 1 150.161163 150.516296 152.156342
569 1 1 150.827454 151.118515 152.077896
570 1 1 150.505112 150.278290 152.046478
571 1 1 150.430984 150.832382 152.941544
572 1 1 150.680527 150.153137 153.757217
573 1 1 150.395020 149.302170 153.959671
574 1 1 150.233200 148.654770 154.829010
575 1 1 150.172852 148.902847 153.931198
576 1 1 150.630630 148.266449 154.556396
577 1 1 151.111740 148.868668 153.931198
578 1 1 151.039673 148.290161 154.826263
579 1 1 150.229980 148.446442 154.460205
580 1 1 149.872620 148.882767 153.658295
581 1 1 149.780609 149.756027 152.842621
582 1 1 149.794952 150.122086 153.742477
583 1 1 150.283264 150.043640 154.497284
584 1 1 150.151825 149.721100 155.386200
585 1 1 149.568634 149.580307 154.706955
586 1 1 150.243362 149.116776 155.143280
587 1 1 151.003296 148.853638 155.565811
588 1 1 150.940521 149.751450 155.550095
589 1 1 150.276123 149.160995 155.362976
590 1 1 150.141006 150.026138 156.117783
591 1 1 150.870850 149.688995 156.554108
592 1 1 150.046799 149.891449 156.861923
593 1 1 150.821381 149.658508 157.270508
594 1 1 151.559540 149.306854 157.679092
595 1 1 151.833099 148.569611 156.915848
596 1 1 151.162064 149.111252 156.593307
597 1 1 151.465164 149.758652 155.806152
598 1 1 151.165024 148.995407 155.106720
599 1 1 151.252869 149.790054 154.226379
600 1 1 150.750671 149.452911 154.945145
601 1 1 151.356567 149.804565 155.558945
602 1 1 150.877640 149.157166 154.980438
603 1 1 150.295944 148.924225 155.649261
604 1 1 150.924591 148.357834 156.043793
605 1 1 151.250244 149.192307 156.276733
606 1 1 150.636047 149.642303 155.722641
607 1 1 150.274490 150.464493 155.581848
608 1 1 150.468094 150.201355 154.704910
609 1 1 151.171158 149.659729 154.517792
610 1 1 151.648849 148.980484 153.988785
611 1 1 151.904037 149.826202 153.485504
612 1 1 151.683411 149.080063 154.294418
613 1 1 151.720230 148.183487 155.089066
614 1 1 152.381561 147.617096 154.796051
615 1 1 152.650940 148.195602 153.967590
616 1 1 152.416580 148.932846 154.769501
617 1 1 152.573456 148.566788 155.652969
618 1 1 152.732697 147.693527 156.266769
619 1 1 153.602036 147.693527 156.499710
620 1 1 153.922684 147.415421 157.334183
621 1 1 154.612015 147.399719 156.755676
622 1 1 154.400375 146.680954 155.927216
623 1 1 154.602325 147.360199 155.081497
624 1 1 155.262924 147.500992 155.683716
625 1 1 156.153091 147.406921 155.589645
626 1 1 156.064346 148.283859 154.780731
627 1 1 156.172195 147.705353 153.891815
628 1 1 156.106186 148.424118 154.785110
629 1 1 155.524689 148.965744 155.314117
630 1 1 155.341660 149.152863 156.194443
631 1 1 155.567703 148.463425 155.365982
632 1 1 155.374908 149.029816 154.500839
633 1 1 155.202225 148.214142 153.698929
634 1 1 154.872833 147.764145 152.883255
635 1 1 155.343033 147.105927 153.461761
636 1 1 154.755814 146.426682 153.555832
637 1 1 154.911713 145.540359 153.618607
638 1 1 155.174805 144.679688 153.602905
639 1 1 155.540604 144.342545 152.793991
640 1 1 156.149338 143.764038 152.371460
641 1 1 155.787598 144.042160 151.555786
642 1 1 156.158234 144.608551 152.319031
643 1 1 155.854752 144.105286 153.141220
644 1 1 155.859863 145.005142 152.290253
645 1 1 155.995209 144.555145 151.403931
646 1 1 156.784760 144.232620 151.711746
647 1 1 156.473190 145.048294 151.195526
648 1 1 156.909790 144.457840 150.506088
649 1 1 156.132401 144.823898 150.799103
650 1 1 156.892731 144.590958 150.362778
651 1 1 156.511276 144.268433 149.560867
652 1 1 155.854401 143.752213 149.152267
653 1 1 155.521896 144.580673 148.859253
654 1 1 154.867477 144.975204 148.330246
655 1 1 154.973907 144.081909 148.112518
656 1 1 154.384857 144.269028 147.443680
657 1 1 154.492935 143.385559 146.744247
658 1 1 155.017990 142.657440 146.853928
659 1 1 155.703033 142.890381 147.408020
660 1 1 155.785202 143.569626 148.299255
661 1 1 155.002625 143.725906 147.876724
662 1 1 155.109955 142.845581 147.139481
663 1 1 155.118042 143.617035 148.039337
664 1 1 155.024475 143.522964 148.934402
665 1 1 155.114471 142.677246 148.073730
666 1 1 155.395309 141.848785 147.532089
667 1 1 154.567856 141.692505 147.854614
668 1 1 154.174286 140.883591 147.917389
669 1 1 154.892624 140.914993 147.375748
670 1 1 154.122665 141.102112 147.812073
671 1 1 155.022522 141.086411 147.812073
672 2 2 150.000000 150.000000 150.000000
673 2 2 149.816513 150.876938 149.619644
674 2 2 149.444656 151.566376 150.309082
675 2 2 148.743500 151.288254 150.825302
676 2 2 148.773834 152.187698 150.592361
677 2 2 149.036469 151.385788 151.281799
678 2 2 148.176468 151.229507 151.499527
679 2 2 147.855164 151.307953 150.659302
680 2 2 147.054474 150.927597 150.487579
681 2 2 147.621094 150.547241 149.840179
682 2 2 147.124329 149.933441 150.430634
683 2 2 146.283844 149.792648 150.723648
684 2 2 145.438629 150.100464 150.692230
685 2 2 144.717926 149.867523 151.195511
686 2 2 144.550598 149.665070 152.078979
687 2 2 143.680649 149.586624 152.296707
688 2 2 143.629761 148.700302 151.445740
689 2 2 144.394867 148.528580 151.895737
690 2 2 145.099625 148.065048 151.529678
691 2 2 144.493378 148.723267 151.670471
692 2 2 145.343460 148.582474 151.933609
693 2 2 145.192551 147.811020 151.082642
694 2 2 145.539612 148.490265 150.354523
695 2 2 144.900650 149.056656 150.720581
696 2 2 145.760651 149.212936 150.502853
697 2 2 145.360672 149.976181 150.012680
698 2 2 145.962067 149.929077 149.343842
699 2 2 146.725845 149.711349 149.780167
700 2 2 146.197159 149.679947 150.508286
701 2 2 146.591827 150.481857 150.741226
702 2 2 146.907959 151.140076 151.512680
703 2 2 146.839355 151.576401 150.616104
704 2 2 146.651016 152.265839 149.765137
705 2 2 147.249084 152.468292 150.423355
706 2 2 146.630783 151.978119 149.907135
707 2 2 147.075150 151.231979 150.329666
708 2 2 147.205246 150.386261 149.513992
709 2 2 147.050888 149.499939 149.654785
710 2 2 146.622574 149.328217 150.441940
711 2 2 147.434174 149.095276 150.119415
712 2 2 147.538803 148.206360 149.517197
713 2 2 146.947845 148.784866 149.980728
714 2 2 146.315933 149.338959 150.389313
715 2 2 145.588257 149.370377 149.860306
716 2 2 145.338608 148.712158 150.682495
717 2 2 144.765305 148.248627 150.080276
718 2 2 145.023422 147.511383 149.300858
719 2 2 145.619370 146.886185 149.652512
720 2 2 146.389771 146.933289 150.116043
721 2 2 146.656342 146.087570 149.666046
722 2 2 146.904694 146.882217 148.937927
723 2 2 147.187881 146.182785 148.158508
724 2 2 147.569504 146.969940 148.594833
725 2 2 147.933563 147.669373 147.905396
726 2 2 147.887955 148.564438 148.692551
727 2 2 147.416367 148.930496 147.955307
728 2 2 147.664658 148.231064 148.764221
729 2 2 147.650314 148.597122 149.664078